ATOMS
         O    1.839970    1.839970    3.152937         0.000000    0.000000   -0.224389
         O    1.839970    1.839970    1.906981         0.000000   -0.000000    0.224389
