ATOMS
         O    3.869930    4.559918    4.449184         0.734828    0.516578    0.398154
         H    3.869930    5.323157    3.852875         0.026454    0.880572   -0.836636
         H    3.869930    3.796679    3.852875         0.022576   -0.932267   -0.830668
