ATOMS
         O    7.388710    8.692600    8.483343         0.000000    0.000000    0.019498
         H    7.388710   10.134913    7.356482         0.000000    0.017589   -0.016485
         H    7.388710    7.250287    7.356482        -0.000000   -0.017589   -0.016485
