ATOMS
         O    3.477040    3.477040    5.958188         0.000000   -0.000000   -0.004364
         O    3.477040    3.477040    3.603672        -0.000000   -0.000000    0.004364
